LAMMPS output created by EMC v9.4.4, build Jul 27 2022 17:22:21

3403 atoms
2890 bonds
5569 angles
7848 dihedrals
3472 impropers
11 atom types
8 bond types
13 angle types
13 dihedral types
13 improper types
0.0 33.262302 xlo xhi
0.0 28.806 ylo yhi
0.0 64.26800285 zlo zhi

Masses

       1  195.09000  # Pt
       2   12.01115  # c
       3   18.99840  # f
       4    1.00797  # hn
       5    1.00797  # hw
       6   14.00670  # na
       7   15.99940  # o*
       8   15.99940  # o-
       9   15.99940  # o=
      10   15.99940  # oc
      11   32.06400  # s

Atoms

1 1 1 0.0000 2.7718585000 2.4005000000 5.5 
2 2 1 0.0000 5.5437170823 2.4005000000 5.5 
3 3 1 0.0000 4.1577877911 4.8009999479 5.5 
4 4 1 0.0000 6.9296463734 4.8009999479 5.5 
5 5 1 0.0000 4.1577877911 3.2006666493 7.7632130552 
6 6 1 0.0000 6.9296463734 3.2006666493 7.7632130552 
7 7 1 0.0000 5.5437170823 5.6011665972 7.7632130552 
8 8 1 0.0000 8.3155756645 5.6011665972 7.7632130552 
9 9 1 0.0000 2.7718585000 4.0008332986 0.9864261104 
10 10 1 0.0000 5.5437170823 4.0008332986 0.9864261104 
11 11 1 0.0000 4.1577877911 6.4013332465 0.9864261104 
12 12 1 0.0000 6.9296463734 6.4013332465 0.9864261104 
13 13 1 0.0000 2.7718585000 2.4005000000 3.2496391657 
14 14 1 0.0000 5.5437170823 2.4005000000 3.2496391657 
15 15 1 0.0000 4.1577877911 4.8009999479 3.2496391657 
16 16 1 0.0000 6.9296463734 4.8009999479 3.2496391657 
17 17 1 0.0000 8.3155755000 2.4005000000 5.5 
18 18 1 0.0000 11.0874340823 2.4005000000 5.5 
19 19 1 0.0000 9.7015047911 4.8009999479 5.5 
20 20 1 0.0000 12.4733633734 4.8009999479 5.5 
21 21 1 0.0000 9.7015047911 3.2006666493 7.7632130552 
22 22 1 0.0000 12.4733633734 3.2006666493 7.7632130552 
23 23 1 0.0000 11.0874340823 5.6011665972 7.7632130552 
24 24 1 0.0000 13.8592926645 5.6011665972 7.7632130552 
25 25 1 0.0000 8.3155755000 4.0008332986 0.9864261104 
26 26 1 0.0000 11.0874340823 4.0008332986 0.9864261104 
27 27 1 0.0000 9.7015047911 6.4013332465 0.9864261104 
28 28 1 0.0000 12.4733633734 6.4013332465 0.9864261104 
29 29 1 0.0000 8.3155755000 2.4005000000 3.2496391657 
30 30 1 0.0000 11.0874340823 2.4005000000 3.2496391657 
31 31 1 0.0000 9.7015047911 4.8009999479 3.2496391657 
32 32 1 0.0000 12.4733633734 4.8009999479 3.2496391657 
33 33 1 0.0000 13.8592925000 2.4005000000 5.5 
34 34 1 0.0000 16.6311510823 2.4005000000 5.5 
35 35 1 0.0000 15.2452217911 4.8009999479 5.5 
36 36 1 0.0000 18.0170803734 4.8009999479 5.5 
37 37 1 0.0000 15.2452217911 3.2006666493 7.7632130552 
38 38 1 0.0000 18.0170803734 3.2006666493 7.7632130552 
39 39 1 0.0000 16.6311510823 5.6011665972 7.7632130552 
40 40 1 0.0000 19.4030096645 5.6011665972 7.7632130552 
41 41 1 0.0000 13.8592925000 4.0008332986 0.9864261104 
42 42 1 0.0000 16.6311510823 4.0008332986 0.9864261104 
43 43 1 0.0000 15.2452217911 6.4013332465 0.9864261104 
44 44 1 0.0000 18.0170803734 6.4013332465 0.9864261104 
45 45 1 0.0000 13.8592925000 2.4005000000 3.2496391657 
46 46 1 0.0000 16.6311510823 2.4005000000 3.2496391657 
47 47 1 0.0000 15.2452217911 4.8009999479 3.2496391657 
48 48 1 0.0000 18.0170803734 4.8009999479 3.2496391657 
49 49 1 0.0000 19.4030095000 2.4005000000 5.5 
50 50 1 0.0000 22.1748680823 2.4005000000 5.5 
51 51 1 0.0000 20.7889387911 4.8009999479 5.5 
52 52 1 0.0000 23.5607973734 4.8009999479 5.5 
53 53 1 0.0000 20.7889387911 3.2006666493 7.7632130552 
54 54 1 0.0000 23.5607973734 3.2006666493 7.7632130552 
55 55 1 0.0000 22.1748680823 5.6011665972 7.7632130552 
56 56 1 0.0000 24.9467266645 5.6011665972 7.7632130552 
57 57 1 0.0000 19.4030095000 4.0008332986 0.9864261104 
58 58 1 0.0000 22.1748680823 4.0008332986 0.9864261104 
59 59 1 0.0000 20.7889387911 6.4013332465 0.9864261104 
60 60 1 0.0000 23.5607973734 6.4013332465 0.9864261104 
61 61 1 0.0000 19.4030095000 2.4005000000 3.2496391657 
62 62 1 0.0000 22.1748680823 2.4005000000 3.2496391657 
63 63 1 0.0000 20.7889387911 4.8009999479 3.2496391657 
64 64 1 0.0000 23.5607973734 4.8009999479 3.2496391657 
65 65 1 0.0000 24.9467265000 2.4005000000 5.5 
66 66 1 0.0000 27.7185850823 2.4005000000 5.5 
67 67 1 0.0000 26.3326557911 4.8009999479 5.5 
68 68 1 0.0000 29.1045143734 4.8009999479 5.5 
69 69 1 0.0000 26.3326557911 3.2006666493 7.7632130552 
70 70 1 0.0000 29.1045143734 3.2006666493 7.7632130552 
71 71 1 0.0000 27.7185850823 5.6011665972 7.7632130552 
72 72 1 0.0000 30.4904436645 5.6011665972 7.7632130552 
73 73 1 0.0000 24.9467265000 4.0008332986 0.9864261104 
74 74 1 0.0000 27.7185850823 4.0008332986 0.9864261104 
75 75 1 0.0000 26.3326557911 6.4013332465 0.9864261104 
76 76 1 0.0000 29.1045143734 6.4013332465 0.9864261104 
77 77 1 0.0000 24.9467265000 2.4005000000 3.2496391657 
78 78 1 0.0000 27.7185850823 2.4005000000 3.2496391657 
79 79 1 0.0000 26.3326557911 4.8009999479 3.2496391657 
80 80 1 0.0000 29.1045143734 4.8009999479 3.2496391657 
81 81 1 0.0000 30.4904435000 2.4005000000 5.5 
82 82 1 0.0000 0.0000000823 2.4005000000 5.5 
83 83 1 0.0000 31.8763727911 4.8009999479 5.5 
84 84 1 0.0000 1.3859293734 4.8009999479 5.5 
85 85 1 0.0000 31.8763727911 3.2006666493 7.7632130552 
86 86 1 0.0000 1.3859293734 3.2006666493 7.7632130552 
87 87 1 0.0000 0.0000000823 5.6011665972 7.7632130552 
88 88 1 0.0000 2.7718586645 5.6011665972 7.7632130552 
89 89 1 0.0000 30.4904435000 4.0008332986 0.9864261104 
90 90 1 0.0000 0.0000000823 4.0008332986 0.9864261104 
91 91 1 0.0000 31.8763727911 6.4013332465 0.9864261104 
92 92 1 0.0000 1.3859293734 6.4013332465 0.9864261104 
93 93 1 0.0000 30.4904435000 2.4005000000 3.2496391657 
94 94 1 0.0000 0.0000000823 2.4005000000 3.2496391657 
95 95 1 0.0000 31.8763727911 4.8009999479 3.2496391657 
96 96 1 0.0000 1.3859293734 4.8009999479 3.2496391657 
97 97 1 0.0000 2.7718585000 7.2015000000 5.5 
98 98 1 0.0000 5.5437170823 7.2015000000 5.5 
99 99 1 0.0000 4.1577877911 9.6019999479 5.5 
100 100 1 0.0000 6.9296463734 9.6019999479 5.5 
101 101 1 0.0000 4.1577877911 8.0016666493 7.7632130552 
102 102 1 0.0000 6.9296463734 8.0016666493 7.7632130552 
103 103 1 0.0000 5.5437170823 10.4021665972 7.7632130552 
104 104 1 0.0000 8.3155756645 10.4021665972 7.7632130552 
105 105 1 0.0000 2.7718585000 8.8018332986 0.9864261104 
106 106 1 0.0000 5.5437170823 8.8018332986 0.9864261104 
107 107 1 0.0000 4.1577877911 11.2023332465 0.9864261104 
108 108 1 0.0000 6.9296463734 11.2023332465 0.9864261104 
109 109 1 0.0000 2.7718585000 7.2015000000 3.2496391657 
110 110 1 0.0000 5.5437170823 7.2015000000 3.2496391657 
111 111 1 0.0000 4.1577877911 9.6019999479 3.2496391657 
112 112 1 0.0000 6.9296463734 9.6019999479 3.2496391657 
113 113 1 0.0000 8.3155755000 7.2015000000 5.5 
114 114 1 0.0000 11.0874340823 7.2015000000 5.5 
115 115 1 0.0000 9.7015047911 9.6019999479 5.5 
116 116 1 0.0000 12.4733633734 9.6019999479 5.5 
117 117 1 0.0000 9.7015047911 8.0016666493 7.7632130552 
118 118 1 0.0000 12.4733633734 8.0016666493 7.7632130552 
119 119 1 0.0000 11.0874340823 10.4021665972 7.7632130552 
120 120 1 0.0000 13.8592926645 10.4021665972 7.7632130552 
121 121 1 0.0000 8.3155755000 8.8018332986 0.9864261104 
122 122 1 0.0000 11.0874340823 8.8018332986 0.9864261104 
123 123 1 0.0000 9.7015047911 11.2023332465 0.9864261104 
124 124 1 0.0000 12.4733633734 11.2023332465 0.9864261104 
125 125 1 0.0000 8.3155755000 7.2015000000 3.2496391657 
126 126 1 0.0000 11.0874340823 7.2015000000 3.2496391657 
127 127 1 0.0000 9.7015047911 9.6019999479 3.2496391657 
128 128 1 0.0000 12.4733633734 9.6019999479 3.2496391657 
129 129 1 0.0000 13.8592925000 7.2015000000 5.5 
130 130 1 0.0000 16.6311510823 7.2015000000 5.5 
131 131 1 0.0000 15.2452217911 9.6019999479 5.5 
132 132 1 0.0000 18.0170803734 9.6019999479 5.5 
133 133 1 0.0000 15.2452217911 8.0016666493 7.7632130552 
134 134 1 0.0000 18.0170803734 8.0016666493 7.7632130552 
135 135 1 0.0000 16.6311510823 10.4021665972 7.7632130552 
136 136 1 0.0000 19.4030096645 10.4021665972 7.7632130552 
137 137 1 0.0000 13.8592925000 8.8018332986 0.9864261104 
138 138 1 0.0000 16.6311510823 8.8018332986 0.9864261104 
139 139 1 0.0000 15.2452217911 11.2023332465 0.9864261104 
140 140 1 0.0000 18.0170803734 11.2023332465 0.9864261104 
141 141 1 0.0000 13.8592925000 7.2015000000 3.2496391657 
142 142 1 0.0000 16.6311510823 7.2015000000 3.2496391657 
143 143 1 0.0000 15.2452217911 9.6019999479 3.2496391657 
144 144 1 0.0000 18.0170803734 9.6019999479 3.2496391657 
145 145 1 0.0000 19.4030095000 7.2015000000 5.5 
146 146 1 0.0000 22.1748680823 7.2015000000 5.5 
147 147 1 0.0000 20.7889387911 9.6019999479 5.5 
148 148 1 0.0000 23.5607973734 9.6019999479 5.5 
149 149 1 0.0000 20.7889387911 8.0016666493 7.7632130552 
150 150 1 0.0000 23.5607973734 8.0016666493 7.7632130552 
151 151 1 0.0000 22.1748680823 10.4021665972 7.7632130552 
152 152 1 0.0000 24.9467266645 10.4021665972 7.7632130552 
153 153 1 0.0000 19.4030095000 8.8018332986 0.9864261104 
154 154 1 0.0000 22.1748680823 8.8018332986 0.9864261104 
155 155 1 0.0000 20.7889387911 11.2023332465 0.9864261104 
156 156 1 0.0000 23.5607973734 11.2023332465 0.9864261104 
157 157 1 0.0000 19.4030095000 7.2015000000 3.2496391657 
158 158 1 0.0000 22.1748680823 7.2015000000 3.2496391657 
159 159 1 0.0000 20.7889387911 9.6019999479 3.2496391657 
160 160 1 0.0000 23.5607973734 9.6019999479 3.2496391657 
161 161 1 0.0000 24.9467265000 7.2015000000 5.5 
162 162 1 0.0000 27.7185850823 7.2015000000 5.5 
163 163 1 0.0000 26.3326557911 9.6019999479 5.5 
164 164 1 0.0000 29.1045143734 9.6019999479 5.5 
165 165 1 0.0000 26.3326557911 8.0016666493 7.7632130552 
166 166 1 0.0000 29.1045143734 8.0016666493 7.7632130552 
167 167 1 0.0000 27.7185850823 10.4021665972 7.7632130552 
168 168 1 0.0000 30.4904436645 10.4021665972 7.7632130552 
169 169 1 0.0000 24.9467265000 8.8018332986 0.9864261104 
170 170 1 0.0000 27.7185850823 8.8018332986 0.9864261104 
171 171 1 0.0000 26.3326557911 11.2023332465 0.9864261104 
172 172 1 0.0000 29.1045143734 11.2023332465 0.9864261104 
173 173 1 0.0000 24.9467265000 7.2015000000 3.2496391657 
174 174 1 0.0000 27.7185850823 7.2015000000 3.2496391657 
175 175 1 0.0000 26.3326557911 9.6019999479 3.2496391657 
176 176 1 0.0000 29.1045143734 9.6019999479 3.2496391657 
177 177 1 0.0000 30.4904435000 7.2015000000 5.5 
178 178 1 0.0000 0.0000000823 7.2015000000 5.5 
179 179 1 0.0000 31.8763727911 9.6019999479 5.5 
180 180 1 0.0000 1.3859293734 9.6019999479 5.5 
181 181 1 0.0000 31.8763727911 8.0016666493 7.7632130552 
182 182 1 0.0000 1.3859293734 8.0016666493 7.7632130552 
183 183 1 0.0000 0.0000000823 10.4021665972 7.7632130552 
184 184 1 0.0000 2.7718586645 10.4021665972 7.7632130552 
185 185 1 0.0000 30.4904435000 8.8018332986 0.9864261104 
186 186 1 0.0000 0.0000000823 8.8018332986 0.9864261104 
187 187 1 0.0000 31.8763727911 11.2023332465 0.9864261104 
188 188 1 0.0000 1.3859293734 11.2023332465 0.9864261104 
189 189 1 0.0000 30.4904435000 7.2015000000 3.2496391657 
190 190 1 0.0000 0.0000000823 7.2015000000 3.2496391657 
191 191 1 0.0000 31.8763727911 9.6019999479 3.2496391657 
192 192 1 0.0000 1.3859293734 9.6019999479 3.2496391657 
193 193 1 0.0000 2.7718585000 12.0025000000 5.5 
194 194 1 0.0000 5.5437170823 12.0025000000 5.5 
195 195 1 0.0000 4.1577877911 14.4029999479 5.5 
196 196 1 0.0000 6.9296463734 14.4029999479 5.5 
197 197 1 0.0000 4.1577877911 12.8026666493 7.7632130552 
198 198 1 0.0000 6.9296463734 12.8026666493 7.7632130552 
199 199 1 0.0000 5.5437170823 15.2031665972 7.7632130552 
200 200 1 0.0000 8.3155756645 15.2031665972 7.7632130552 
201 201 1 0.0000 2.7718585000 13.6028332986 0.9864261104 
202 202 1 0.0000 5.5437170823 13.6028332986 0.9864261104 
203 203 1 0.0000 4.1577877911 16.0033332465 0.9864261104 
204 204 1 0.0000 6.9296463734 16.0033332465 0.9864261104 
205 205 1 0.0000 2.7718585000 12.0025000000 3.2496391657 
206 206 1 0.0000 5.5437170823 12.0025000000 3.2496391657 
207 207 1 0.0000 4.1577877911 14.4029999479 3.2496391657 
208 208 1 0.0000 6.9296463734 14.4029999479 3.2496391657 
209 209 1 0.0000 8.3155755000 12.0025000000 5.5 
210 210 1 0.0000 11.0874340823 12.0025000000 5.5 
211 211 1 0.0000 9.7015047911 14.4029999479 5.5 
212 212 1 0.0000 12.4733633734 14.4029999479 5.5 
213 213 1 0.0000 9.7015047911 12.8026666493 7.7632130552 
214 214 1 0.0000 12.4733633734 12.8026666493 7.7632130552 
215 215 1 0.0000 11.0874340823 15.2031665972 7.7632130552 
216 216 1 0.0000 13.8592926645 15.2031665972 7.7632130552 
217 217 1 0.0000 8.3155755000 13.6028332986 0.9864261104 
218 218 1 0.0000 11.0874340823 13.6028332986 0.9864261104 
219 219 1 0.0000 9.7015047911 16.0033332465 0.9864261104 
220 220 1 0.0000 12.4733633734 16.0033332465 0.9864261104 
221 221 1 0.0000 8.3155755000 12.0025000000 3.2496391657 
222 222 1 0.0000 11.0874340823 12.0025000000 3.2496391657 
223 223 1 0.0000 9.7015047911 14.4029999479 3.2496391657 
224 224 1 0.0000 12.4733633734 14.4029999479 3.2496391657 
225 225 1 0.0000 13.8592925000 12.0025000000 5.5 
226 226 1 0.0000 16.6311510823 12.0025000000 5.5 
227 227 1 0.0000 15.2452217911 14.4029999479 5.5 
228 228 1 0.0000 18.0170803734 14.4029999479 5.5 
229 229 1 0.0000 15.2452217911 12.8026666493 7.7632130552 
230 230 1 0.0000 18.0170803734 12.8026666493 7.7632130552 
231 231 1 0.0000 16.6311510823 15.2031665972 7.7632130552 
232 232 1 0.0000 19.4030096645 15.2031665972 7.7632130552 
233 233 1 0.0000 13.8592925000 13.6028332986 0.9864261104 
234 234 1 0.0000 16.6311510823 13.6028332986 0.9864261104 
235 235 1 0.0000 15.2452217911 16.0033332465 0.9864261104 
236 236 1 0.0000 18.0170803734 16.0033332465 0.9864261104 
237 237 1 0.0000 13.8592925000 12.0025000000 3.2496391657 
238 238 1 0.0000 16.6311510823 12.0025000000 3.2496391657 
239 239 1 0.0000 15.2452217911 14.4029999479 3.2496391657 
240 240 1 0.0000 18.0170803734 14.4029999479 3.2496391657 
241 241 1 0.0000 19.4030095000 12.0025000000 5.5 
242 242 1 0.0000 22.1748680823 12.0025000000 5.5 
243 243 1 0.0000 20.7889387911 14.4029999479 5.5 
244 244 1 0.0000 23.5607973734 14.4029999479 5.5 
245 245 1 0.0000 20.7889387911 12.8026666493 7.7632130552 
246 246 1 0.0000 23.5607973734 12.8026666493 7.7632130552 
247 247 1 0.0000 22.1748680823 15.2031665972 7.7632130552 
248 248 1 0.0000 24.9467266645 15.2031665972 7.7632130552 
249 249 1 0.0000 19.4030095000 13.6028332986 0.9864261104 
250 250 1 0.0000 22.1748680823 13.6028332986 0.9864261104 
251 251 1 0.0000 20.7889387911 16.0033332465 0.9864261104 
252 252 1 0.0000 23.5607973734 16.0033332465 0.9864261104 
253 253 1 0.0000 19.4030095000 12.0025000000 3.2496391657 
254 254 1 0.0000 22.1748680823 12.0025000000 3.2496391657 
255 255 1 0.0000 20.7889387911 14.4029999479 3.2496391657 
256 256 1 0.0000 23.5607973734 14.4029999479 3.2496391657 
257 257 1 0.0000 24.9467265000 12.0025000000 5.5 
258 258 1 0.0000 27.7185850823 12.0025000000 5.5 
259 259 1 0.0000 26.3326557911 14.4029999479 5.5 
260 260 1 0.0000 29.1045143734 14.4029999479 5.5 
261 261 1 0.0000 26.3326557911 12.8026666493 7.7632130552 
262 262 1 0.0000 29.1045143734 12.8026666493 7.7632130552 
263 263 1 0.0000 27.7185850823 15.2031665972 7.7632130552 
264 264 1 0.0000 30.4904436645 15.2031665972 7.7632130552 
265 265 1 0.0000 24.9467265000 13.6028332986 0.9864261104 
266 266 1 0.0000 27.7185850823 13.6028332986 0.9864261104 
267 267 1 0.0000 26.3326557911 16.0033332465 0.9864261104 
268 268 1 0.0000 29.1045143734 16.0033332465 0.9864261104 
269 269 1 0.0000 24.9467265000 12.0025000000 3.2496391657 
270 270 1 0.0000 27.7185850823 12.0025000000 3.2496391657 
271 271 1 0.0000 26.3326557911 14.4029999479 3.2496391657 
272 272 1 0.0000 29.1045143734 14.4029999479 3.2496391657 
273 273 1 0.0000 30.4904435000 12.0025000000 5.5 
274 274 1 0.0000 0.0000000823 12.0025000000 5.5 
275 275 1 0.0000 31.8763727911 14.4029999479 5.5 
276 276 1 0.0000 1.3859293734 14.4029999479 5.5 
277 277 1 0.0000 31.8763727911 12.8026666493 7.7632130552 
278 278 1 0.0000 1.3859293734 12.8026666493 7.7632130552 
279 279 1 0.0000 0.0000000823 15.2031665972 7.7632130552 
280 280 1 0.0000 2.7718586645 15.2031665972 7.7632130552 
281 281 1 0.0000 30.4904435000 13.6028332986 0.9864261104 
282 282 1 0.0000 0.0000000823 13.6028332986 0.9864261104 
283 283 1 0.0000 31.8763727911 16.0033332465 0.9864261104 
284 284 1 0.0000 1.3859293734 16.0033332465 0.9864261104 
285 285 1 0.0000 30.4904435000 12.0025000000 3.2496391657 
286 286 1 0.0000 0.0000000823 12.0025000000 3.2496391657 
287 287 1 0.0000 31.8763727911 14.4029999479 3.2496391657 
288 288 1 0.0000 1.3859293734 14.4029999479 3.2496391657 
289 289 1 0.0000 2.7718585000 16.8035000000 5.5 
290 290 1 0.0000 5.5437170823 16.8035000000 5.5 
291 291 1 0.0000 4.1577877911 19.2039999479 5.5 
292 292 1 0.0000 6.9296463734 19.2039999479 5.5 
293 293 1 0.0000 4.1577877911 17.6036666493 7.7632130552 
294 294 1 0.0000 6.9296463734 17.6036666493 7.7632130552 
295 295 1 0.0000 5.5437170823 20.0041665972 7.7632130552 
296 296 1 0.0000 8.3155756645 20.0041665972 7.7632130552 
297 297 1 0.0000 2.7718585000 18.4038332986 0.9864261104 
298 298 1 0.0000 5.5437170823 18.4038332986 0.9864261104 
299 299 1 0.0000 4.1577877911 20.8043332465 0.9864261104 
300 300 1 0.0000 6.9296463734 20.8043332465 0.9864261104 
301 301 1 0.0000 2.7718585000 16.8035000000 3.2496391657 
302 302 1 0.0000 5.5437170823 16.8035000000 3.2496391657 
303 303 1 0.0000 4.1577877911 19.2039999479 3.2496391657 
304 304 1 0.0000 6.9296463734 19.2039999479 3.2496391657 
305 305 1 0.0000 8.3155755000 16.8035000000 5.5 
306 306 1 0.0000 11.0874340823 16.8035000000 5.5 
307 307 1 0.0000 9.7015047911 19.2039999479 5.5 
308 308 1 0.0000 12.4733633734 19.2039999479 5.5 
309 309 1 0.0000 9.7015047911 17.6036666493 7.7632130552 
310 310 1 0.0000 12.4733633734 17.6036666493 7.7632130552 
311 311 1 0.0000 11.0874340823 20.0041665972 7.7632130552 
312 312 1 0.0000 13.8592926645 20.0041665972 7.7632130552 
313 313 1 0.0000 8.3155755000 18.4038332986 0.9864261104 
314 314 1 0.0000 11.0874340823 18.4038332986 0.9864261104 
315 315 1 0.0000 9.7015047911 20.8043332465 0.9864261104 
316 316 1 0.0000 12.4733633734 20.8043332465 0.9864261104 
317 317 1 0.0000 8.3155755000 16.8035000000 3.2496391657 
318 318 1 0.0000 11.0874340823 16.8035000000 3.2496391657 
319 319 1 0.0000 9.7015047911 19.2039999479 3.2496391657 
320 320 1 0.0000 12.4733633734 19.2039999479 3.2496391657 
321 321 1 0.0000 13.8592925000 16.8035000000 5.5 
322 322 1 0.0000 16.6311510823 16.8035000000 5.5 
323 323 1 0.0000 15.2452217911 19.2039999479 5.5 
324 324 1 0.0000 18.0170803734 19.2039999479 5.5 
325 325 1 0.0000 15.2452217911 17.6036666493 7.7632130552 
326 326 1 0.0000 18.0170803734 17.6036666493 7.7632130552 
327 327 1 0.0000 16.6311510823 20.0041665972 7.7632130552 
328 328 1 0.0000 19.4030096645 20.0041665972 7.7632130552 
329 329 1 0.0000 13.8592925000 18.4038332986 0.9864261104 
330 330 1 0.0000 16.6311510823 18.4038332986 0.9864261104 
331 331 1 0.0000 15.2452217911 20.8043332465 0.9864261104 
332 332 1 0.0000 18.0170803734 20.8043332465 0.9864261104 
333 333 1 0.0000 13.8592925000 16.8035000000 3.2496391657 
334 334 1 0.0000 16.6311510823 16.8035000000 3.2496391657 
335 335 1 0.0000 15.2452217911 19.2039999479 3.2496391657 
336 336 1 0.0000 18.0170803734 19.2039999479 3.2496391657 
337 337 1 0.0000 19.4030095000 16.8035000000 5.5 
338 338 1 0.0000 22.1748680823 16.8035000000 5.5 
339 339 1 0.0000 20.7889387911 19.2039999479 5.5 
340 340 1 0.0000 23.5607973734 19.2039999479 5.5 
341 341 1 0.0000 20.7889387911 17.6036666493 7.7632130552 
342 342 1 0.0000 23.5607973734 17.6036666493 7.7632130552 
343 343 1 0.0000 22.1748680823 20.0041665972 7.7632130552 
344 344 1 0.0000 24.9467266645 20.0041665972 7.7632130552 
345 345 1 0.0000 19.4030095000 18.4038332986 0.9864261104 
346 346 1 0.0000 22.1748680823 18.4038332986 0.9864261104 
347 347 1 0.0000 20.7889387911 20.8043332465 0.9864261104 
348 348 1 0.0000 23.5607973734 20.8043332465 0.9864261104 
349 349 1 0.0000 19.4030095000 16.8035000000 3.2496391657 
350 350 1 0.0000 22.1748680823 16.8035000000 3.2496391657 
351 351 1 0.0000 20.7889387911 19.2039999479 3.2496391657 
352 352 1 0.0000 23.5607973734 19.2039999479 3.2496391657 
353 353 1 0.0000 24.9467265000 16.8035000000 5.5 
354 354 1 0.0000 27.7185850823 16.8035000000 5.5 
355 355 1 0.0000 26.3326557911 19.2039999479 5.5 
356 356 1 0.0000 29.1045143734 19.2039999479 5.5 
357 357 1 0.0000 26.3326557911 17.6036666493 7.7632130552 
358 358 1 0.0000 29.1045143734 17.6036666493 7.7632130552 
359 359 1 0.0000 27.7185850823 20.0041665972 7.7632130552 
360 360 1 0.0000 30.4904436645 20.0041665972 7.7632130552 
361 361 1 0.0000 24.9467265000 18.4038332986 0.9864261104 
362 362 1 0.0000 27.7185850823 18.4038332986 0.9864261104 
363 363 1 0.0000 26.3326557911 20.8043332465 0.9864261104 
364 364 1 0.0000 29.1045143734 20.8043332465 0.9864261104 
365 365 1 0.0000 24.9467265000 16.8035000000 3.2496391657 
366 366 1 0.0000 27.7185850823 16.8035000000 3.2496391657 
367 367 1 0.0000 26.3326557911 19.2039999479 3.2496391657 
368 368 1 0.0000 29.1045143734 19.2039999479 3.2496391657 
369 369 1 0.0000 30.4904435000 16.8035000000 5.5 
370 370 1 0.0000 0.0000000823 16.8035000000 5.5 
371 371 1 0.0000 31.8763727911 19.2039999479 5.5 
372 372 1 0.0000 1.3859293734 19.2039999479 5.5 
373 373 1 0.0000 31.8763727911 17.6036666493 7.7632130552 
374 374 1 0.0000 1.3859293734 17.6036666493 7.7632130552 
375 375 1 0.0000 0.0000000823 20.0041665972 7.7632130552 
376 376 1 0.0000 2.7718586645 20.0041665972 7.7632130552 
377 377 1 0.0000 30.4904435000 18.4038332986 0.9864261104 
378 378 1 0.0000 0.0000000823 18.4038332986 0.9864261104 
379 379 1 0.0000 31.8763727911 20.8043332465 0.9864261104 
380 380 1 0.0000 1.3859293734 20.8043332465 0.9864261104 
381 381 1 0.0000 30.4904435000 16.8035000000 3.2496391657 
382 382 1 0.0000 0.0000000823 16.8035000000 3.2496391657 
383 383 1 0.0000 31.8763727911 19.2039999479 3.2496391657 
384 384 1 0.0000 1.3859293734 19.2039999479 3.2496391657 
385 385 1 0.0000 2.7718585000 21.6045000000 5.5 
386 386 1 0.0000 5.5437170823 21.6045000000 5.5 
387 387 1 0.0000 4.1577877911 24.0049999479 5.5 
388 388 1 0.0000 6.9296463734 24.0049999479 5.5 
389 389 1 0.0000 4.1577877911 22.4046666493 7.7632130552 
390 390 1 0.0000 6.9296463734 22.4046666493 7.7632130552 
391 391 1 0.0000 5.5437170823 24.8051665972 7.7632130552 
392 392 1 0.0000 8.3155756645 24.8051665972 7.7632130552 
393 393 1 0.0000 2.7718585000 23.2048332986 0.9864261104 
394 394 1 0.0000 5.5437170823 23.2048332986 0.9864261104 
395 395 1 0.0000 4.1577877911 25.6053332465 0.9864261104 
396 396 1 0.0000 6.9296463734 25.6053332465 0.9864261104 
397 397 1 0.0000 2.7718585000 21.6045000000 3.2496391657 
398 398 1 0.0000 5.5437170823 21.6045000000 3.2496391657 
399 399 1 0.0000 4.1577877911 24.0049999479 3.2496391657 
400 400 1 0.0000 6.9296463734 24.0049999479 3.2496391657 
401 401 1 0.0000 8.3155755000 21.6045000000 5.5 
402 402 1 0.0000 11.0874340823 21.6045000000 5.5 
403 403 1 0.0000 9.7015047911 24.0049999479 5.5 
404 404 1 0.0000 12.4733633734 24.0049999479 5.5 
405 405 1 0.0000 9.7015047911 22.4046666493 7.7632130552 
406 406 1 0.0000 12.4733633734 22.4046666493 7.7632130552 
407 407 1 0.0000 11.0874340823 24.8051665972 7.7632130552 
408 408 1 0.0000 13.8592926645 24.8051665972 7.7632130552 
409 409 1 0.0000 8.3155755000 23.2048332986 0.9864261104 
410 410 1 0.0000 11.0874340823 23.2048332986 0.9864261104 
411 411 1 0.0000 9.7015047911 25.6053332465 0.9864261104 
412 412 1 0.0000 12.4733633734 25.6053332465 0.9864261104 
413 413 1 0.0000 8.3155755000 21.6045000000 3.2496391657 
414 414 1 0.0000 11.0874340823 21.6045000000 3.2496391657 
415 415 1 0.0000 9.7015047911 24.0049999479 3.2496391657 
416 416 1 0.0000 12.4733633734 24.0049999479 3.2496391657 
417 417 1 0.0000 13.8592925000 21.6045000000 5.5 
418 418 1 0.0000 16.6311510823 21.6045000000 5.5 
419 419 1 0.0000 15.2452217911 24.0049999479 5.5 
420 420 1 0.0000 18.0170803734 24.0049999479 5.5 
421 421 1 0.0000 15.2452217911 22.4046666493 7.7632130552 
422 422 1 0.0000 18.0170803734 22.4046666493 7.7632130552 
423 423 1 0.0000 16.6311510823 24.8051665972 7.7632130552 
424 424 1 0.0000 19.4030096645 24.8051665972 7.7632130552 
425 425 1 0.0000 13.8592925000 23.2048332986 0.9864261104 
426 426 1 0.0000 16.6311510823 23.2048332986 0.9864261104 
427 427 1 0.0000 15.2452217911 25.6053332465 0.9864261104 
428 428 1 0.0000 18.0170803734 25.6053332465 0.9864261104 
429 429 1 0.0000 13.8592925000 21.6045000000 3.2496391657 
430 430 1 0.0000 16.6311510823 21.6045000000 3.2496391657 
431 431 1 0.0000 15.2452217911 24.0049999479 3.2496391657 
432 432 1 0.0000 18.0170803734 24.0049999479 3.2496391657 
433 433 1 0.0000 19.4030095000 21.6045000000 5.5 
434 434 1 0.0000 22.1748680823 21.6045000000 5.5 
435 435 1 0.0000 20.7889387911 24.0049999479 5.5 
436 436 1 0.0000 23.5607973734 24.0049999479 5.5 
437 437 1 0.0000 20.7889387911 22.4046666493 7.7632130552 
438 438 1 0.0000 23.5607973734 22.4046666493 7.7632130552 
439 439 1 0.0000 22.1748680823 24.8051665972 7.7632130552 
440 440 1 0.0000 24.9467266645 24.8051665972 7.7632130552 
441 441 1 0.0000 19.4030095000 23.2048332986 0.9864261104 
442 442 1 0.0000 22.1748680823 23.2048332986 0.9864261104 
443 443 1 0.0000 20.7889387911 25.6053332465 0.9864261104 
444 444 1 0.0000 23.5607973734 25.6053332465 0.9864261104 
445 445 1 0.0000 19.4030095000 21.6045000000 3.2496391657 
446 446 1 0.0000 22.1748680823 21.6045000000 3.2496391657 
447 447 1 0.0000 20.7889387911 24.0049999479 3.2496391657 
448 448 1 0.0000 23.5607973734 24.0049999479 3.2496391657 
449 449 1 0.0000 24.9467265000 21.6045000000 5.5 
450 450 1 0.0000 27.7185850823 21.6045000000 5.5 
451 451 1 0.0000 26.3326557911 24.0049999479 5.5 
452 452 1 0.0000 29.1045143734 24.0049999479 5.5 
453 453 1 0.0000 26.3326557911 22.4046666493 7.7632130552 
454 454 1 0.0000 29.1045143734 22.4046666493 7.7632130552 
455 455 1 0.0000 27.7185850823 24.8051665972 7.7632130552 
456 456 1 0.0000 30.4904436645 24.8051665972 7.7632130552 
457 457 1 0.0000 24.9467265000 23.2048332986 0.9864261104 
458 458 1 0.0000 27.7185850823 23.2048332986 0.9864261104 
459 459 1 0.0000 26.3326557911 25.6053332465 0.9864261104 
460 460 1 0.0000 29.1045143734 25.6053332465 0.9864261104 
461 461 1 0.0000 24.9467265000 21.6045000000 3.2496391657 
462 462 1 0.0000 27.7185850823 21.6045000000 3.2496391657 
463 463 1 0.0000 26.3326557911 24.0049999479 3.2496391657 
464 464 1 0.0000 29.1045143734 24.0049999479 3.2496391657 
465 465 1 0.0000 30.4904435000 21.6045000000 5.5 
466 466 1 0.0000 0.0000000823 21.6045000000 5.5 
467 467 1 0.0000 31.8763727911 24.0049999479 5.5 
468 468 1 0.0000 1.3859293734 24.0049999479 5.5 
469 469 1 0.0000 31.8763727911 22.4046666493 7.7632130552 
470 470 1 0.0000 1.3859293734 22.4046666493 7.7632130552 
471 471 1 0.0000 0.0000000823 24.8051665972 7.7632130552 
472 472 1 0.0000 2.7718586645 24.8051665972 7.7632130552 
473 473 1 0.0000 30.4904435000 23.2048332986 0.9864261104 
474 474 1 0.0000 0.0000000823 23.2048332986 0.9864261104 
475 475 1 0.0000 31.8763727911 25.6053332465 0.9864261104 
476 476 1 0.0000 1.3859293734 25.6053332465 0.9864261104 
477 477 1 0.0000 30.4904435000 21.6045000000 3.2496391657 
478 478 1 0.0000 0.0000000823 21.6045000000 3.2496391657 
479 479 1 0.0000 31.8763727911 24.0049999479 3.2496391657 
480 480 1 0.0000 1.3859293734 24.0049999479 3.2496391657 
481 481 1 0.0000 2.7718585000 26.4055000000 5.5 
482 482 1 0.0000 5.5437170823 26.4055000000 5.5 
483 483 1 0.0000 4.1577877911 28.8059999479 5.5 
484 484 1 0.0000 6.9296463734 28.8059999479 5.5 
485 485 1 0.0000 4.1577877911 27.2056666493 7.7632130552 
486 486 1 0.0000 6.9296463734 27.2056666493 7.7632130552 
487 487 1 0.0000 5.5437170823 0.8001665972 7.7632130552 
488 488 1 0.0000 8.3155756645 0.8001665972 7.7632130552 
489 489 1 0.0000 2.7718585000 28.0058332986 0.9864261104 
490 490 1 0.0000 5.5437170823 28.0058332986 0.9864261104 
491 491 1 0.0000 4.1577877911 1.6003332465 0.9864261104 
492 492 1 0.0000 6.9296463734 1.6003332465 0.9864261104 
493 493 1 0.0000 2.7718585000 26.4055000000 3.2496391657 
494 494 1 0.0000 5.5437170823 26.4055000000 3.2496391657 
495 495 1 0.0000 4.1577877911 28.8059999479 3.2496391657 
496 496 1 0.0000 6.9296463734 28.8059999479 3.2496391657 
497 497 1 0.0000 8.3155755000 26.4055000000 5.5 
498 498 1 0.0000 11.0874340823 26.4055000000 5.5 
499 499 1 0.0000 9.7015047911 28.8059999479 5.5 
500 500 1 0.0000 12.4733633734 28.8059999479 5.5 
501 501 1 0.0000 9.7015047911 27.2056666493 7.7632130552 
502 502 1 0.0000 12.4733633734 27.2056666493 7.7632130552 
503 503 1 0.0000 11.0874340823 0.8001665972 7.7632130552 
504 504 1 0.0000 13.8592926645 0.8001665972 7.7632130552 
505 505 1 0.0000 8.3155755000 28.0058332986 0.9864261104 
506 506 1 0.0000 11.0874340823 28.0058332986 0.9864261104 
507 507 1 0.0000 9.7015047911 1.6003332465 0.9864261104 
508 508 1 0.0000 12.4733633734 1.6003332465 0.9864261104 
509 509 1 0.0000 8.3155755000 26.4055000000 3.2496391657 
510 510 1 0.0000 11.0874340823 26.4055000000 3.2496391657 
511 511 1 0.0000 9.7015047911 28.8059999479 3.2496391657 
512 512 1 0.0000 12.4733633734 28.8059999479 3.2496391657 
513 513 1 0.0000 13.8592925000 26.4055000000 5.5 
514 514 1 0.0000 16.6311510823 26.4055000000 5.5 
515 515 1 0.0000 15.2452217911 28.8059999479 5.5 
516 516 1 0.0000 18.0170803734 28.8059999479 5.5 
517 517 1 0.0000 15.2452217911 27.2056666493 7.7632130552 
518 518 1 0.0000 18.0170803734 27.2056666493 7.7632130552 
519 519 1 0.0000 16.6311510823 0.8001665972 7.7632130552 
520 520 1 0.0000 19.4030096645 0.8001665972 7.7632130552 
521 521 1 0.0000 13.8592925000 28.0058332986 0.9864261104 
522 522 1 0.0000 16.6311510823 28.0058332986 0.9864261104 
523 523 1 0.0000 15.2452217911 1.6003332465 0.9864261104 
524 524 1 0.0000 18.0170803734 1.6003332465 0.9864261104 
525 525 1 0.0000 13.8592925000 26.4055000000 3.2496391657 
526 526 1 0.0000 16.6311510823 26.4055000000 3.2496391657 
527 527 1 0.0000 15.2452217911 28.8059999479 3.2496391657 
528 528 1 0.0000 18.0170803734 28.8059999479 3.2496391657 